# Force coefficients
# liftDir     : (0.000000e+00 0.000000e+00 1.000000e+00)
# dragDir     : (0.000000e+00 1.000000e+00 0.000000e+00)
# pitchAxis   : (0.000000e+00 1.000000e+00 0.000000e+00)
# magUInf     : 2.000000e+01
# lRef        : 1.000000e+00
# Aref        : 7.591940e+03
# CofR        : (7.200000e-01 0.000000e+00 0.000000e+00)
# Time        	Cm            	Cd            	Cl            	Cl(f)         	Cl(r)         
1             	-9.245941e-01	7.431931e+00	1.449171e-01	-8.521356e-01	9.970526e-01
2             	-1.749388e+00	8.112619e+00	2.746980e-01	-1.612039e+00	1.886737e+00
3             	-1.011754e+00	4.854263e+00	3.776193e-01	-8.229448e-01	1.200564e+00
4             	4.837902e-01	-1.917893e-01	4.211353e-01	6.943579e-01	-2.732226e-01
5             	1.826118e+00	-3.752346e+00	3.212664e-01	1.986751e+00	-1.665485e+00
6             	2.067800e+00	-4.155502e+00	1.686489e-01	2.152124e+00	-1.983475e+00
7             	1.419859e+00	-2.372523e+00	-2.436010e-03	1.418641e+00	-1.421077e+00
8             	-1.405450e-01	3.157413e-01	-1.159701e-01	-1.985300e-01	8.255995e-02
9             	-1.311293e+00	2.265098e+00	-7.790207e-02	-1.350244e+00	1.272342e+00
10            	-1.386899e+00	2.618869e+00	5.316506e-02	-1.360316e+00	1.413481e+00
11            	-7.159525e-01	1.814753e+00	1.804326e-01	-6.257362e-01	8.061688e-01
12            	8.774384e-01	5.287546e-01	2.990938e-01	1.026985e+00	-7.278915e-01
13            	2.093894e+00	-4.888067e-01	3.158915e-01	2.251839e+00	-1.935948e+00
14            	2.201830e+00	-7.587740e-01	2.448007e-01	2.324230e+00	-2.079429e+00
15            	1.551711e+00	-4.102616e-01	1.526725e-01	1.628047e+00	-1.475375e+00
16            	2.019249e-01	1.835003e-01	5.111563e-02	2.274827e-01	-1.763671e-01
17            	-9.080676e-01	6.936613e-01	1.318246e-02	-9.014764e-01	9.146588e-01
18            	-1.156522e+00	8.418087e-01	4.100954e-02	-1.136017e+00	1.177027e+00
19            	-6.324228e-01	7.441482e-01	1.095195e-01	-5.776631e-01	6.871826e-01
20            	2.617359e-01	5.213575e-01	1.726956e-01	3.480837e-01	-1.753881e-01
21            	1.018886e+00	3.269876e-01	2.013122e-01	1.119543e+00	-9.182304e-01
22            	1.398552e+00	2.115772e-01	1.884749e-01	1.492790e+00	-1.304315e+00
23            	1.177544e+00	1.903143e-01	1.385122e-01	1.246800e+00	-1.108288e+00
24            	8.016608e-01	2.556576e-01	1.021539e-01	8.527377e-01	-7.505839e-01
25            	2.206808e-01	3.347773e-01	6.475371e-02	2.530576e-01	-1.883039e-01
26            	-3.049256e-01	4.042491e-01	4.086117e-02	-2.844950e-01	3.253562e-01
27            	-4.799464e-01	4.389846e-01	3.847712e-02	-4.607078e-01	4.991849e-01
28            	-2.989990e-01	4.387387e-01	4.941712e-02	-2.742904e-01	3.237076e-01
29            	6.282359e-02	4.204263e-01	6.170116e-02	9.367417e-02	-3.197301e-02
30            	4.988991e-01	4.039302e-01	7.080883e-02	5.343035e-01	-4.634947e-01
31            	8.727657e-01	3.900715e-01	7.056888e-02	9.080501e-01	-8.374812e-01
32            	1.029988e+00	3.803326e-01	5.929591e-02	1.059636e+00	-1.000340e+00
33            	9.613082e-01	3.752929e-01	4.131197e-02	9.819642e-01	-9.406522e-01
34            	7.621505e-01	3.740789e-01	2.368751e-02	7.739943e-01	-7.503068e-01
35            	5.456155e-01	3.729053e-01	1.004339e-02	5.506372e-01	-5.405938e-01
36            	3.454007e-01	3.722810e-01	-1.326063e-03	3.447377e-01	-3.460638e-01
37            	2.007192e-01	3.754000e-01	-9.375511e-03	1.960314e-01	-2.054070e-01
38            	1.543858e-01	3.831485e-01	-1.289825e-02	1.479366e-01	-1.608349e-01
39            	2.039402e-01	3.930344e-01	-1.270294e-02	1.975887e-01	-2.102917e-01
40            	3.000225e-01	4.019396e-01	-1.105890e-02	2.944930e-01	-3.055519e-01
41            	3.903240e-01	4.082495e-01	-9.774481e-03	3.854368e-01	-3.952113e-01
42            	4.556820e-01	4.122098e-01	-9.187855e-03	4.510881e-01	-4.602760e-01
43            	4.885027e-01	4.129155e-01	-9.688738e-03	4.836584e-01	-4.933471e-01
44            	4.739644e-01	4.101033e-01	-1.160431e-02	4.681623e-01	-4.797666e-01
45            	4.034259e-01	4.049996e-01	-1.465217e-02	3.960998e-01	-4.107520e-01
46            	2.863285e-01	3.994001e-01	-1.830297e-02	2.771770e-01	-2.954799e-01
47            	1.446412e-01	3.950866e-01	-2.185452e-02	1.337140e-01	-1.555685e-01
48            	1.710579e-03	3.927008e-01	-2.496554e-02	-1.077219e-02	-1.419335e-02
49            	-1.326141e-01	3.920701e-01	-2.768576e-02	-1.464570e-01	1.187712e-01
50            	-2.574734e-01	3.928258e-01	-3.032415e-02	-2.726355e-01	2.423114e-01
51            	-3.666790e-01	3.951269e-01	-3.293093e-02	-3.831445e-01	3.502135e-01
52            	-4.454552e-01	3.987013e-01	-3.551811e-02	-4.632142e-01	4.276961e-01
53            	-4.833924e-01	4.027748e-01	-3.810136e-02	-5.024431e-01	4.643417e-01
54            	-4.798847e-01	4.063277e-01	-4.060750e-02	-5.001885e-01	4.595810e-01
55            	-4.513778e-01	4.086448e-01	-4.319143e-02	-4.729735e-01	4.297821e-01
56            	-4.173126e-01	4.097413e-01	-4.603159e-02	-4.403284e-01	3.942969e-01
57            	-3.878543e-01	4.098051e-01	-4.942797e-02	-4.125683e-01	3.631403e-01
58            	-3.655687e-01	4.090217e-01	-5.383239e-02	-3.924849e-01	3.386525e-01
59            	-3.527626e-01	4.076167e-01	-5.950459e-02	-3.825148e-01	3.230103e-01
60            	-3.489688e-01	4.057388e-01	-6.657842e-02	-3.822580e-01	3.156796e-01
61            	-3.509757e-01	4.036841e-01	-7.481425e-02	-3.883829e-01	3.135686e-01
62            	-3.519829e-01	4.017923e-01	-8.375207e-02	-3.938589e-01	3.101068e-01
63            	-3.451157e-01	4.003269e-01	-9.298014e-02	-3.916058e-01	2.986257e-01
64            	-3.255766e-01	3.994298e-01	-1.022073e-01	-3.766803e-01	2.744730e-01
65            	-2.912416e-01	3.991813e-01	-1.112528e-01	-3.468680e-01	2.356153e-01
66            	-2.426307e-01	3.996378e-01	-1.200446e-01	-3.026530e-01	1.826084e-01
67            	-1.843309e-01	4.008464e-01	-1.283929e-01	-2.485273e-01	1.201344e-01
68            	-1.258381e-01	4.028516e-01	-1.359461e-01	-1.938111e-01	5.786503e-02
69            	-7.646458e-02	4.051123e-01	-1.425753e-01	-1.477522e-01	5.176923e-03
70            	-4.417669e-02	4.070775e-01	-1.482866e-01	-1.183200e-01	-2.996662e-02
71            	-3.419316e-02	4.086825e-01	-1.532447e-01	-1.108155e-01	-4.242919e-02
72            	-4.723497e-02	4.098562e-01	-1.577076e-01	-1.260888e-01	-3.161885e-02
73            	-8.268209e-02	4.106420e-01	-1.619656e-01	-1.636649e-01	1.699288e-03
74            	-1.373349e-01	4.110718e-01	-1.661765e-01	-2.204232e-01	5.424670e-02
75            	-2.055736e-01	4.112069e-01	-1.704212e-01	-2.907842e-01	1.203630e-01
76            	-2.809654e-01	4.111083e-01	-1.746847e-01	-3.683077e-01	1.936231e-01
77            	-3.572399e-01	4.108555e-01	-1.789132e-01	-4.466965e-01	2.677833e-01
78            	-4.289241e-01	4.105440e-01	-1.830703e-01	-5.204592e-01	3.373890e-01
79            	-4.918690e-01	4.102520e-01	-1.871680e-01	-5.854530e-01	3.982850e-01
80            	-5.439209e-01	4.100343e-01	-1.912949e-01	-6.395684e-01	4.482735e-01
81            	-5.837816e-01	4.099266e-01	-1.955632e-01	-6.815632e-01	4.860000e-01
82            	-6.123310e-01	4.099460e-01	-2.002092e-01	-7.124355e-01	5.122264e-01
83            	-6.305034e-01	4.101574e-01	-2.052914e-01	-7.331491e-01	5.278577e-01
84            	-6.394625e-01	4.107638e-01	-2.105833e-01	-7.447541e-01	5.341708e-01
85            	-6.425311e-01	4.115598e-01	-2.159548e-01	-7.505085e-01	5.345537e-01
86            	-6.420540e-01	4.124436e-01	-2.213065e-01	-7.527072e-01	5.314007e-01
87            	-6.393160e-01	4.132235e-01	-2.264552e-01	-7.525436e-01	5.260885e-01
88            	-6.345377e-01	4.138064e-01	-2.314985e-01	-7.502869e-01	5.187884e-01
89            	-6.278389e-01	4.140028e-01	-2.365805e-01	-7.461292e-01	5.095487e-01
90            	-6.192730e-01	4.139787e-01	-2.417031e-01	-7.401245e-01	4.984214e-01
91            	-6.095286e-01	4.137404e-01	-2.468667e-01	-7.329619e-01	4.860952e-01
92            	-5.997840e-01	4.133495e-01	-2.520783e-01	-7.258231e-01	4.737449e-01
93            	-5.920829e-01	4.128813e-01	-2.572508e-01	-7.207083e-01	4.634575e-01
94            	-5.892640e-01	4.124076e-01	-2.621763e-01	-7.203522e-01	4.581758e-01
95            	-5.941358e-01	4.120268e-01	-2.666758e-01	-7.274736e-01	4.607979e-01
96            	-6.087095e-01	4.118239e-01	-2.706078e-01	-7.440135e-01	4.734056e-01
97            	-6.340661e-01	4.118854e-01	-2.738947e-01	-7.710134e-01	4.971188e-01
98            	-6.697767e-01	4.122206e-01	-2.764669e-01	-8.080101e-01	5.315432e-01
99            	-7.151540e-01	4.127332e-01	-2.784276e-01	-8.543678e-01	5.759402e-01
100           	-7.672586e-01	4.133677e-01	-2.798917e-01	-9.072045e-01	6.273127e-01
101           	-8.226790e-01	4.139955e-01	-2.810848e-01	-9.632214e-01	6.821366e-01
102           	-8.747946e-01	4.145957e-01	-2.821669e-01	-1.015878e+00	7.337112e-01
103           	-9.188342e-01	4.151085e-01	-2.833540e-01	-1.060511e+00	7.771571e-01
104           	-9.515414e-01	4.155027e-01	-2.848349e-01	-1.093959e+00	8.091240e-01
105           	-9.712032e-01	4.157564e-01	-2.867565e-01	-1.114581e+00	8.278250e-01
106           	-9.773665e-01	4.158369e-01	-2.892029e-01	-1.121968e+00	8.327651e-01
107           	-9.709099e-01	4.158099e-01	-2.922189e-01	-1.117019e+00	8.248004e-01
108           	-9.538492e-01	4.157318e-01	-2.958328e-01	-1.101766e+00	8.059328e-01
109           	-9.285158e-01	4.156473e-01	-2.999316e-01	-1.078482e+00	7.785500e-01
110           	-8.976517e-01	4.156020e-01	-3.044239e-01	-1.049864e+00	7.454397e-01
111           	-8.631321e-01	4.156529e-01	-3.092188e-01	-1.017741e+00	7.085227e-01
112           	-8.261320e-01	4.157640e-01	-3.142425e-01	-9.832533e-01	6.690107e-01
113           	-7.878772e-01	4.159286e-01	-3.194340e-01	-9.475942e-01	6.281602e-01
114           	-7.492187e-01	4.161328e-01	-3.247515e-01	-9.115945e-01	5.868429e-01
115           	-7.113257e-01	4.163301e-01	-3.301526e-01	-8.764020e-01	5.462494e-01
116           	-6.763197e-01	4.165699e-01	-3.355733e-01	-8.441064e-01	5.085331e-01
117           	-6.466836e-01	4.168587e-01	-3.409515e-01	-8.171593e-01	4.762078e-01
118           	-6.251310e-01	4.171940e-01	-3.462162e-01	-7.982391e-01	4.520228e-01
119           	-6.133477e-01	4.175617e-01	-3.513483e-01	-7.890219e-01	4.376736e-01
120           	-6.125450e-01	4.179563e-01	-3.563492e-01	-7.907196e-01	4.343705e-01
121           	-6.235360e-01	4.183867e-01	-3.612167e-01	-8.041444e-01	4.429277e-01
122           	-6.463492e-01	4.188694e-01	-3.659186e-01	-8.293085e-01	4.633899e-01
123           	-6.800214e-01	4.194511e-01	-3.705201e-01	-8.652815e-01	4.947613e-01
124           	-7.220792e-01	4.201317e-01	-3.750207e-01	-9.095895e-01	5.345688e-01
125           	-7.687104e-01	4.209008e-01	-3.795059e-01	-9.584634e-01	5.789575e-01
126           	-8.155433e-01	4.217095e-01	-3.840236e-01	-1.007555e+00	6.235315e-01
127           	-8.586793e-01	4.225086e-01	-3.886198e-01	-1.052989e+00	6.643694e-01
128           	-8.951516e-01	4.232804e-01	-3.933773e-01	-1.091840e+00	6.984630e-01
129           	-9.228808e-01	4.240158e-01	-3.983332e-01	-1.122047e+00	7.237142e-01
130           	-9.405188e-01	4.246966e-01	-4.034773e-01	-1.142257e+00	7.387801e-01
131           	-9.479391e-01	4.253105e-01	-4.088031e-01	-1.152341e+00	7.435375e-01
132           	-9.457517e-01	4.258722e-01	-4.143521e-01	-1.152928e+00	7.385756e-01
133           	-9.354215e-01	4.264034e-01	-4.200906e-01	-1.145467e+00	7.253762e-01
134           	-9.189181e-01	4.269305e-01	-4.259497e-01	-1.131893e+00	7.059433e-01
135           	-8.982479e-01	4.274798e-01	-4.318472e-01	-1.114172e+00	6.823244e-01
136           	-8.750705e-01	4.280543e-01	-4.377227e-01	-1.093932e+00	6.562091e-01
137           	-8.506852e-01	4.286373e-01	-4.435504e-01	-1.072460e+00	6.289100e-01
138           	-8.262063e-01	4.291985e-01	-4.493253e-01	-1.050869e+00	6.015437e-01
139           	-8.025662e-01	4.297165e-01	-4.550508e-01	-1.030092e+00	5.750408e-01
140           	-7.808056e-01	4.301892e-01	-4.607034e-01	-1.011157e+00	5.504539e-01
141           	-7.620224e-01	4.306306e-01	-4.662523e-01	-9.951485e-01	5.288962e-01
142           	-7.472774e-01	4.310563e-01	-4.716615e-01	-9.831081e-01	5.114467e-01
143           	-7.371801e-01	4.314829e-01	-4.769302e-01	-9.756452e-01	4.987150e-01
144           	-7.323527e-01	4.318967e-01	-4.820015e-01	-9.733534e-01	4.913519e-01
145           	-7.330736e-01	4.322935e-01	-4.868652e-01	-9.765063e-01	4.896410e-01
146           	-7.391227e-01	4.326691e-01	-4.915303e-01	-9.848878e-01	4.933575e-01
147           	-7.499528e-01	4.330211e-01	-4.960166e-01	-9.979611e-01	5.019445e-01
148           	-7.645366e-01	4.333460e-01	-5.003542e-01	-1.014714e+00	5.143595e-01
149           	-7.815891e-01	4.336704e-01	-5.046022e-01	-1.033890e+00	5.292880e-01
150           	-7.998253e-01	4.339447e-01	-5.087717e-01	-1.054211e+00	5.454395e-01
151           	-8.178854e-01	4.341972e-01	-5.128655e-01	-1.074318e+00	5.614526e-01
152           	-8.345642e-01	4.343602e-01	-5.169369e-01	-1.093033e+00	5.760958e-01
153           	-8.488907e-01	4.343729e-01	-5.210573e-01	-1.109419e+00	5.883620e-01
154           	-8.597497e-01	4.342911e-01	-5.252323e-01	-1.122366e+00	5.971336e-01
155           	-8.663116e-01	4.341293e-01	-5.294713e-01	-1.131047e+00	6.015760e-01
156           	-8.679686e-01	4.339996e-01	-5.336691e-01	-1.134803e+00	6.011340e-01
157           	-8.647886e-01	4.337354e-01	-5.379813e-01	-1.133779e+00	5.957980e-01
158           	-8.566511e-01	4.334576e-01	-5.422822e-01	-1.127792e+00	5.855100e-01
159           	-8.438893e-01	4.331915e-01	-5.465413e-01	-1.117160e+00	5.706186e-01
160           	-8.271599e-01	4.329518e-01	-5.507422e-01	-1.102531e+00	5.517888e-01
161           	-8.072684e-01	4.327453e-01	-5.548722e-01	-1.084705e+00	5.298324e-01
162           	-7.851412e-01	4.325741e-01	-5.589061e-01	-1.064594e+00	5.056882e-01
163           	-7.615803e-01	4.324367e-01	-5.628175e-01	-1.042989e+00	4.801715e-01
164           	-7.374182e-01	4.323305e-01	-5.665823e-01	-1.020709e+00	4.541271e-01
165           	-7.133786e-01	4.322537e-01	-5.701837e-01	-9.984704e-01	4.282868e-01
166           	-6.900960e-01	4.322079e-01	-5.736200e-01	-9.769060e-01	4.032860e-01
167           	-6.680722e-01	4.321689e-01	-5.768915e-01	-9.565180e-01	3.796265e-01
168           	-6.474311e-01	4.321702e-01	-5.800266e-01	-9.374444e-01	3.574179e-01
169           	-6.280364e-01	4.322152e-01	-5.830411e-01	-9.195569e-01	3.365158e-01
170           	-6.098843e-01	4.323040e-01	-5.859425e-01	-9.028556e-01	3.169131e-01
171           	-5.929542e-01	4.324386e-01	-5.887366e-01	-8.873225e-01	2.985859e-01
172           	-5.772120e-01	4.326181e-01	-5.914280e-01	-8.729260e-01	2.814980e-01
173           	-5.626475e-01	4.328383e-01	-5.940228e-01	-8.596589e-01	2.656361e-01
174           	-5.492429e-01	4.330832e-01	-5.965087e-01	-8.474972e-01	2.509885e-01
175           	-5.372023e-01	4.333346e-01	-5.988865e-01	-8.366456e-01	2.377591e-01
176           	-5.263434e-01	4.335973e-01	-6.012115e-01	-8.269492e-01	2.257377e-01
177           	-5.166442e-01	4.338639e-01	-6.034969e-01	-8.183926e-01	2.148958e-01
178           	-5.081205e-01	4.341266e-01	-6.057445e-01	-8.109927e-01	2.052483e-01
179           	-5.007367e-01	4.343812e-01	-6.079488e-01	-8.047111e-01	1.967623e-01
180           	-4.945939e-01	4.346236e-01	-6.100973e-01	-7.996425e-01	1.895452e-01
181           	-4.896118e-01	4.348529e-01	-6.121720e-01	-7.956978e-01	1.835258e-01
182           	-4.856158e-01	4.350698e-01	-6.141574e-01	-7.926945e-01	1.785371e-01
183           	-4.826685e-01	4.352774e-01	-6.160433e-01	-7.906902e-01	1.746469e-01
184           	-4.811418e-01	4.354799e-01	-6.178229e-01	-7.900533e-01	1.722303e-01
185           	-4.816292e-01	4.356811e-01	-6.194843e-01	-7.913714e-01	1.718871e-01
186           	-4.851146e-01	4.358816e-01	-6.210087e-01	-7.956189e-01	1.746103e-01
187           	-4.924724e-01	4.360799e-01	-6.223799e-01	-8.036624e-01	1.812824e-01
188           	-5.044684e-01	4.362717e-01	-6.235830e-01	-8.162599e-01	1.926769e-01
189           	-5.216512e-01	4.364547e-01	-6.246097e-01	-8.339561e-01	2.093464e-01
190           	-5.441843e-01	4.366284e-01	-6.254560e-01	-8.569123e-01	2.314563e-01
191           	-5.720282e-01	4.367951e-01	-6.261204e-01	-8.850884e-01	2.589680e-01
192           	-6.048807e-01	4.369594e-01	-6.266054e-01	-9.181834e-01	2.915780e-01
193           	-6.427481e-01	4.371451e-01	-6.269089e-01	-9.562025e-01	3.292936e-01
194           	-6.849477e-01	4.373397e-01	-6.270231e-01	-9.984593e-01	3.714362e-01
195           	-7.312971e-01	4.375737e-01	-6.269301e-01	-1.044762e+00	4.178321e-01
196           	-7.809003e-01	4.378233e-01	-6.266305e-01	-1.094216e+00	4.675851e-01
197           	-8.328878e-01	4.380860e-01	-6.261224e-01	-1.145949e+00	5.198266e-01
198           	-8.863682e-01	4.383780e-01	-6.254027e-01	-1.199070e+00	5.736669e-01
199           	-9.409889e-01	4.386705e-01	-6.244756e-01	-1.253227e+00	6.287511e-01
200           	-9.964203e-01	4.389542e-01	-6.233425e-01	-1.308092e+00	6.847490e-01
201           	-1.052308e+00	4.392207e-01	-6.220015e-01	-1.363309e+00	7.413076e-01
202           	-1.107975e+00	4.394635e-01	-6.204542e-01	-1.418202e+00	7.977481e-01
203           	-1.162510e+00	4.396804e-01	-6.187063e-01	-1.471864e+00	8.531572e-01
204           	-1.214204e+00	4.398716e-01	-6.167823e-01	-1.522596e+00	9.058133e-01
205           	-1.260985e+00	4.400391e-01	-6.147174e-01	-1.568344e+00	9.536263e-01
206           	-1.301079e+00	4.401867e-01	-6.125499e-01	-1.607354e+00	9.948042e-01
207           	-1.333014e+00	4.403193e-01	-6.103173e-01	-1.638172e+00	1.027855e+00
208           	-1.355626e+00	4.404407e-01	-6.080561e-01	-1.659654e+00	1.051598e+00
209           	-1.368165e+00	4.405574e-01	-6.057889e-01	-1.671060e+00	1.065271e+00
210           	-1.370653e+00	4.406617e-01	-6.035589e-01	-1.672432e+00	1.068873e+00
211           	-1.363505e+00	4.407620e-01	-6.014091e-01	-1.664209e+00	1.062800e+00
212           	-1.347376e+00	4.408363e-01	-5.993376e-01	-1.647045e+00	1.047707e+00
213           	-1.323151e+00	4.408672e-01	-5.973288e-01	-1.621816e+00	1.024487e+00
214           	-1.292046e+00	4.408804e-01	-5.953582e-01	-1.589725e+00	9.943670e-01
215           	-1.254768e+00	4.408726e-01	-5.934188e-01	-1.551478e+00	9.580589e-01
216           	-1.211894e+00	4.408505e-01	-5.914880e-01	-1.507638e+00	9.161496e-01
217           	-1.163968e+00	4.408249e-01	-5.895480e-01	-1.458742e+00	8.691939e-01
218           	-1.111815e+00	4.408060e-01	-5.875824e-01	-1.405606e+00	8.180236e-01
219           	-1.056407e+00	4.407966e-01	-5.855882e-01	-1.349201e+00	7.636132e-01
220           	-9.994058e-01	4.408281e-01	-5.835422e-01	-1.291177e+00	7.076347e-01
221           	-9.418835e-01	4.408904e-01	-5.814141e-01	-1.232591e+00	6.511765e-01
222           	-8.851343e-01	4.409867e-01	-5.791813e-01	-1.174725e+00	5.955437e-01
223           	-8.299146e-01	4.411179e-01	-5.768280e-01	-1.118329e+00	5.415006e-01
224           	-7.764126e-01	4.412845e-01	-5.743444e-01	-1.063585e+00	4.892404e-01
225           	-7.240586e-01	4.414847e-01	-5.717323e-01	-1.009925e+00	4.381925e-01
226           	-6.717572e-01	4.417159e-01	-5.689905e-01	-9.562524e-01	3.872619e-01
227           	-6.181033e-01	4.419756e-01	-5.661199e-01	-9.011632e-01	3.350433e-01
228           	-5.616875e-01	4.422609e-01	-5.631304e-01	-8.432527e-01	2.801223e-01
229           	-5.011265e-01	4.425652e-01	-5.600570e-01	-7.811551e-01	2.210980e-01
230           	-4.351042e-01	4.428657e-01	-5.569530e-01	-7.135808e-01	1.566277e-01
231           	-3.630218e-01	4.431644e-01	-5.539038e-01	-6.399737e-01	8.606989e-02
232           	-2.847289e-01	4.434452e-01	-5.509794e-01	-5.602186e-01	9.239198e-03
233           	-2.009181e-01	4.436916e-01	-5.482314e-01	-4.750337e-01	-7.319764e-02
234           	-1.135278e-01	4.438879e-01	-5.456751e-01	-3.863654e-01	-1.593098e-01
235           	-2.560952e-02	4.440250e-01	-5.432713e-01	-2.972452e-01	-2.460261e-01
236           	5.999488e-02	4.441033e-01	-5.409275e-01	-2.104689e-01	-3.304586e-01
237           	1.419766e-01	4.441345e-01	-5.385161e-01	-1.272815e-01	-4.112346e-01
238           	2.204116e-01	4.441368e-01	-5.359049e-01	-4.754085e-02	-4.883640e-01
239           	2.959659e-01	4.441307e-01	-5.329838e-01	2.947397e-02	-5.624578e-01
240           	3.687051e-01	4.441387e-01	-5.297110e-01	1.038496e-01	-6.335606e-01
241           	4.376055e-01	4.441812e-01	-5.261534e-01	1.745288e-01	-7.006822e-01
242           	5.013856e-01	4.442812e-01	-5.224828e-01	2.401442e-01	-7.626270e-01
243           	5.601327e-01	4.444155e-01	-5.188536e-01	3.007059e-01	-8.195595e-01
244           	6.150083e-01	4.445589e-01	-5.153741e-01	3.573212e-01	-8.726953e-01
245           	6.679255e-01	4.446835e-01	-5.120707e-01	4.118902e-01	-9.239609e-01
246           	7.207082e-01	4.447678e-01	-5.089049e-01	4.662558e-01	-9.751607e-01
247           	7.743711e-01	4.448027e-01	-5.058194e-01	5.214614e-01	-1.027281e+00
248           	8.288495e-01	4.447832e-01	-5.027592e-01	5.774700e-01	-1.080229e+00
249           	8.828040e-01	4.447386e-01	-4.997157e-01	6.329462e-01	-1.132662e+00
250           	9.345678e-01	4.446920e-01	-4.966982e-01	6.862188e-01	-1.182917e+00
251           	9.826410e-01	4.446652e-01	-4.937344e-01	7.357738e-01	-1.229508e+00
252           	1.026246e+00	4.446722e-01	-4.908547e-01	7.808191e-01	-1.271674e+00
253           	1.065389e+00	4.447178e-01	-4.880827e-01	8.213476e-01	-1.309430e+00
254           	1.100672e+00	4.447983e-01	-4.854312e-01	8.579565e-01	-1.343388e+00
255           	1.132816e+00	4.449052e-01	-4.829063e-01	8.913632e-01	-1.374269e+00
256           	1.162363e+00	4.450279e-01	-4.805113e-01	9.221074e-01	-1.402619e+00
257           	1.189543e+00	4.451566e-01	-4.782471e-01	9.504195e-01	-1.428667e+00
258           	1.214268e+00	4.452845e-01	-4.761132e-01	9.762111e-01	-1.452324e+00
259           	1.236307e+00	4.454082e-01	-4.741063e-01	9.992534e-01	-1.473360e+00
260           	1.255331e+00	4.455282e-01	-4.722207e-01	1.019220e+00	-1.491441e+00
261           	1.271014e+00	4.456398e-01	-4.704487e-01	1.035790e+00	-1.506238e+00
262           	1.282974e+00	4.457572e-01	-4.687844e-01	1.048582e+00	-1.517367e+00
263           	1.291088e+00	4.458845e-01	-4.672241e-01	1.057476e+00	-1.524700e+00
264           	1.295382e+00	4.460246e-01	-4.657649e-01	1.062500e+00	-1.528265e+00
265           	1.296064e+00	4.461791e-01	-4.644039e-01	1.063862e+00	-1.528266e+00
266           	1.293549e+00	4.463453e-01	-4.631462e-01	1.061976e+00	-1.525122e+00
267           	1.288235e+00	4.465210e-01	-4.619803e-01	1.057245e+00	-1.519225e+00
268           	1.280681e+00	4.467094e-01	-4.608896e-01	1.050236e+00	-1.511126e+00
269           	1.271397e+00	4.469078e-01	-4.598656e-01	1.041465e+00	-1.501330e+00
270           	1.260778e+00	4.471129e-01	-4.589019e-01	1.031327e+00	-1.490229e+00
271           	1.249167e+00	4.473212e-01	-4.579936e-01	1.020170e+00	-1.478164e+00
272           	1.236864e+00	4.475296e-01	-4.571376e-01	1.008295e+00	-1.465433e+00
273           	1.224096e+00	4.477354e-01	-4.563309e-01	9.959307e-01	-1.452262e+00
274           	1.211019e+00	4.479369e-01	-4.555698e-01	9.832344e-01	-1.438804e+00
275           	1.197798e+00	4.481333e-01	-4.548502e-01	9.703727e-01	-1.425223e+00
276           	1.184568e+00	4.483247e-01	-4.541670e-01	9.574850e-01	-1.411652e+00
277           	1.171358e+00	4.485116e-01	-4.535135e-01	9.446014e-01	-1.398115e+00
278           	1.158134e+00	4.486949e-01	-4.528831e-01	9.316920e-01	-1.384575e+00
279           	1.144841e+00	4.488757e-01	-4.522706e-01	9.187060e-01	-1.370977e+00
280           	1.131412e+00	4.490559e-01	-4.516720e-01	9.055765e-01	-1.357248e+00
281           	1.117791e+00	4.492363e-01	-4.510848e-01	8.922489e-01	-1.343334e+00
282           	1.103951e+00	4.494245e-01	-4.505013e-01	8.787001e-01	-1.329201e+00
283           	1.089971e+00	4.496136e-01	-4.499308e-01	8.650052e-01	-1.314936e+00
284           	1.075942e+00	4.498016e-01	-4.493749e-01	8.512541e-01	-1.300629e+00
285           	1.061821e+00	4.499953e-01	-4.488295e-01	8.374061e-01	-1.286236e+00
286           	1.047480e+00	4.501797e-01	-4.483002e-01	8.233298e-01	-1.271630e+00
287           	1.032708e+00	4.503505e-01	-4.477853e-01	8.088148e-01	-1.256600e+00
288           	1.017323e+00	4.505050e-01	-4.472823e-01	7.936815e-01	-1.240964e+00
289           	1.001166e+00	4.506424e-01	-4.467886e-01	7.777714e-01	-1.224560e+00
290           	9.841066e-01	4.507637e-01	-4.463028e-01	7.609552e-01	-1.207258e+00
291           	9.660647e-01	4.508720e-01	-4.458242e-01	7.431526e-01	-1.188977e+00
292           	9.470206e-01	4.509712e-01	-4.453512e-01	7.243450e-01	-1.169696e+00
293           	9.270156e-01	4.510657e-01	-4.448831e-01	7.045740e-01	-1.149457e+00
294           	9.060539e-01	4.511598e-01	-4.444186e-01	6.838446e-01	-1.128263e+00
295           	8.841317e-01	4.512563e-01	-4.439587e-01	6.621524e-01	-1.106111e+00
296           	8.614628e-01	4.513613e-01	-4.435090e-01	6.397083e-01	-1.083217e+00
297           	8.378693e-01	4.514673e-01	-4.430665e-01	6.163361e-01	-1.059403e+00
298           	8.133014e-01	4.515722e-01	-4.426321e-01	5.919854e-01	-1.034618e+00
299           	7.877375e-01	4.516743e-01	-4.422072e-01	5.666339e-01	-1.008841e+00
300           	7.612159e-01	4.517718e-01	-4.417922e-01	5.403198e-01	-9.821120e-01
301           	7.337930e-01	4.518642e-01	-4.413884e-01	5.130988e-01	-9.544872e-01
302           	7.055703e-01	4.519516e-01	-4.409975e-01	4.850715e-01	-9.260690e-01
303           	6.767221e-01	4.520355e-01	-4.406221e-01	4.564111e-01	-8.970332e-01
304           	6.472111e-01	4.521137e-01	-4.402598e-01	4.270812e-01	-8.673410e-01
305           	6.173581e-01	4.521939e-01	-4.399152e-01	3.974005e-01	-8.373157e-01
306           	5.872634e-01	4.522782e-01	-4.395883e-01	3.674692e-01	-8.070575e-01
307           	5.570289e-01	4.523684e-01	-4.392799e-01	3.373890e-01	-7.766689e-01
308           	5.267174e-01	4.524650e-01	-4.389911e-01	3.072218e-01	-7.462130e-01
309           	4.963986e-01	4.525673e-01	-4.387235e-01	2.770369e-01	-7.157604e-01
310           	4.661106e-01	4.526735e-01	-4.384784e-01	2.468714e-01	-6.853498e-01
311           	4.358803e-01	4.527816e-01	-4.382569e-01	2.167518e-01	-6.550087e-01
312           	4.057251e-01	4.528900e-01	-4.380596e-01	1.866953e-01	-6.247548e-01
313           	3.756457e-01	4.529970e-01	-4.378866e-01	1.567024e-01	-5.945890e-01
314           	3.456680e-01	4.531018e-01	-4.377380e-01	1.267990e-01	-5.645370e-01
315           	3.158536e-01	4.532040e-01	-4.376139e-01	9.704669e-02	-5.346606e-01
316           	2.862667e-01	4.533043e-01	-4.375156e-01	6.750896e-02	-5.050245e-01
317           	2.570041e-01	4.534033e-01	-4.374437e-01	3.828227e-02	-4.757260e-01
318           	2.281797e-01	4.535020e-01	-4.373993e-01	9.480082e-03	-4.468794e-01
319           	1.998876e-01	4.536008e-01	-4.373828e-01	-1.880379e-02	-4.185790e-01
320           	1.722018e-01	4.536993e-01	-4.373938e-01	-4.649507e-02	-3.908987e-01
321           	1.451475e-01	4.537967e-01	-4.374323e-01	-7.356870e-02	-3.638636e-01
322           	1.187154e-01	4.538920e-01	-4.374972e-01	-1.000332e-01	-3.374640e-01
323           	9.288404e-02	4.539837e-01	-4.375863e-01	-1.259091e-01	-3.116772e-01
324           	6.761736e-02	4.540702e-01	-4.376964e-01	-1.512308e-01	-2.864656e-01
325           	4.297545e-02	4.541535e-01	-4.378227e-01	-1.759359e-01	-2.618868e-01
326           	1.860729e-02	4.542250e-01	-4.379639e-01	-2.003747e-01	-2.375892e-01
327           	-5.365470e-03	4.542872e-01	-4.381163e-01	-2.244236e-01	-2.136927e-01
328           	-2.890879e-02	4.543395e-01	-4.382778e-01	-2.480477e-01	-1.902301e-01
329           	-5.196850e-02	4.543823e-01	-4.384464e-01	-2.711917e-01	-1.672547e-01
330           	-7.447185e-02	4.544159e-01	-4.386203e-01	-2.937820e-01	-1.448383e-01
331           	-9.635490e-02	4.544409e-01	-4.387980e-01	-3.157539e-01	-1.230441e-01
332           	-1.175894e-01	4.544580e-01	-4.389782e-01	-3.370786e-01	-1.018997e-01
333           	-1.381924e-01	4.544672e-01	-4.391596e-01	-3.577722e-01	-8.138737e-02
334           	-1.581908e-01	4.544687e-01	-4.393395e-01	-3.778606e-01	-6.147890e-02
335           	-1.776462e-01	4.544625e-01	-4.395147e-01	-3.974035e-01	-4.211115e-02
336           	-1.966480e-01	4.544487e-01	-4.396819e-01	-4.164889e-01	-2.319300e-02
337           	-2.152760e-01	4.544280e-01	-4.398388e-01	-4.351954e-01	-4.643428e-03
338           	-2.335920e-01	4.544013e-01	-4.399836e-01	-4.535838e-01	1.360022e-02
339           	-2.516435e-01	4.543697e-01	-4.401150e-01	-4.717010e-01	3.158598e-02
340           	-2.694562e-01	4.543342e-01	-4.402324e-01	-4.895724e-01	4.934001e-02
341           	-2.869588e-01	4.542948e-01	-4.403351e-01	-5.071263e-01	6.679127e-02
342           	-3.041987e-01	4.542537e-01	-4.404227e-01	-5.244101e-01	8.398737e-02
343           	-3.212019e-01	4.542129e-01	-4.404955e-01	-5.414496e-01	1.009542e-01
344           	-3.378464e-01	4.541729e-01	-4.405544e-01	-5.581236e-01	1.175692e-01
345           	-3.541023e-01	4.541351e-01	-4.406010e-01	-5.744028e-01	1.338019e-01
346           	-3.699997e-01	4.541000e-01	-4.406370e-01	-5.903182e-01	1.496812e-01
347           	-3.855906e-01	4.540677e-01	-4.406647e-01	-6.059229e-01	1.652582e-01
348           	-4.009106e-01	4.540378e-01	-4.406856e-01	-6.212534e-01	1.805678e-01
349           	-4.159767e-01	4.540103e-01	-4.407009e-01	-6.363272e-01	1.956263e-01
350           	-4.307978e-01	4.539855e-01	-4.407125e-01	-6.511541e-01	2.104416e-01
351           	-4.454217e-01	4.539592e-01	-4.407234e-01	-6.657834e-01	2.250600e-01
352           	-4.597805e-01	4.539389e-01	-4.407345e-01	-6.801478e-01	2.394133e-01
353           	-4.738226e-01	4.539222e-01	-4.407482e-01	-6.941967e-01	2.534485e-01
354           	-4.875399e-01	4.539142e-01	-4.407658e-01	-7.079228e-01	2.671570e-01
355           	-5.008976e-01	4.539145e-01	-4.407887e-01	-7.212919e-01	2.805032e-01
356           	-5.138798e-01	4.539217e-01	-4.408189e-01	-7.342893e-01	2.934703e-01
357           	-5.264633e-01	4.539344e-01	-4.408586e-01	-7.468926e-01	3.060340e-01